! Touchstone(R) file created by SIwave 2017.2.0
! Touchstone(R) file created on Fri Mar 01 18:07:19 2019

! Port[1] = DUT0_DUT0_VDD_GPU_0_Group_DUT0_GND_Group
! Port[2] = DUT2_DUT2_VDD_GPU_2_Group_DUT2_GND_Group
! Port[3] = UFP_UVS64_100_8_100_UFP_UVS64_100_8_100_VDD_GPU_2_Group_UFP_UVS64_100_8_100_GND_Group
! Port[4] = UFP_UVS64_100_9_100_UFP_UVS64_100_9_100_VDD_GPU_0_Group_UFP_UVS64_100_9_100_GND_Group


! S-parameters
# Hz S MA R 0.001000
0.000000000000e+00 2.821447533988e-01 0.000000000000e+00 1.480400466676e-03 0.000000000000e+00 1.480400466676e-03 1.800000000000e+02 7.178552466002e-01 0.000000000000e+00
                   1.480400466676e-03 0.000000000000e+00 2.832002945817e-01 0.000000000000e+00 7.167997054173e-01 0.000000000000e+00 1.480400466676e-03 1.800000000000e+02
                   1.480400466676e-03 1.800000000000e+02 7.167997054173e-01 0.000000000000e+00 2.832002945817e-01 0.000000000000e+00 1.480400466676e-03 0.000000000000e+00
                   7.178552466002e-01 0.000000000000e+00 1.480400466676e-03 1.800000000000e+02 1.480400466676e-03 0.000000000000e+00 2.821447533988e-01 0.000000000000e+00
1.000000000000e+00 2.821447533731e-01 -7.992733197267e-04 1.480400465535e-03 -2.293948578907e-04 1.480400465576e-03 -1.799999732493e+02 7.178552466170e-01 -2.335852486866e-04
                   1.480400465535e-03 -2.293948578907e-04 2.832002945566e-01 -8.360497773825e-04 7.167997054328e-01 -2.312409703969e-04 1.480400465569e-03 1.799999947732e+02
                   1.480400465576e-03 -1.799999732493e+02 7.167997054328e-01 -2.312409703969e-04 2.832002945464e-01 -3.244390392361e-04 1.480400465610e-03 2.509244948343e-04
                   7.178552466170e-01 -2.335852486866e-04 1.480400465569e-03 1.799999947732e+02 1.480400465610e-03 2.509244948343e-04 2.821447533635e-01 -3.519050557473e-04
1.120740201310e+00 2.821447533665e-01 -8.957777412647e-04 1.480400465243e-03 -2.570920392112e-04 1.480400465294e-03 -1.799999700194e+02 7.178552466213e-01 -2.617883786322e-04
                   1.480400465243e-03 -2.570920392112e-04 2.832002945502e-01 -9.369945958215e-04 7.167997054367e-01 -2.591610517097e-04 1.480400465286e-03 1.799999941421e+02
                   1.480400465294e-03 -1.799999700194e+02 7.167997054367e-01 -2.591610517097e-04 2.832002945373e-01 -3.636118741615e-04 1.480400465337e-03 2.812211688510e-04
                   7.178552466213e-01 -2.617883786322e-04 1.480400465286e-03 1.799999941421e+02 1.480400465337e-03 2.812211688510e-04 2.821447533544e-01 -3.943941430370e-04
1.227747082788e+00 2.821447533601e-01 -9.813054866741e-04 1.480400464956e-03 -2.816388675793e-04 1.480400465018e-03 -1.799999671569e+02 7.178552466255e-01 -2.867836076485e-04
                   1.480400464956e-03 -2.816388675793e-04 2.832002945439e-01 -1.026457675274e-03 7.167997054406e-01 -2.839054268173e-04 1.480400465008e-03 1.799999935828e+02
                   1.480400465018e-03 -1.799999671569e+02 7.167997054406e-01 -2.839054268173e-04 2.832002945284e-01 -3.983290839964e-04 1.480400465069e-03 3.080718165260e-04
                   7.178552466255e-01 -2.867836076485e-04 1.480400465008e-03 1.799999935828e+02 1.480400465069e-03 3.080718165260e-04 2.821447533456e-01 -4.320504056466e-04
1.344970848313e+00 2.821447533523e-01 -1.074999314920e-03 1.480400464612e-03 -3.085293966110e-04 1.480400464686e-03 -1.799999640211e+02 7.178552466306e-01 -3.141653500640e-04
                   1.480400464612e-03 -3.085293966110e-04 2.832002945363e-01 -1.124462578367e-03 7.167997054453e-01 -3.110123641042e-04 1.480400464674e-03 1.799999929701e+02
                   1.480400464686e-03 -1.799999640211e+02 7.167997054453e-01 -3.110123641042e-04 2.832002945178e-01 -4.363610498831e-04 1.480400464747e-03 3.374861306668e-04
                   7.178552466306e-01 -3.141653500640e-04 1.480400464674e-03 1.799999929701e+02 1.480400464747e-03 3.374861306668e-04 2.821447533349e-01 -4.733020414146e-04
1.473386993276e+00 2.821447533430e-01 -1.177638913442e-03 1.480400464199e-03 -3.379873999319e-04 1.480400464288e-03 -1.799999605858e+02 7.178552466367e-01 -3.441614672115e-04
                   1.480400464199e-03 -3.379873999319e-04 2.832002945272e-01 -1.231824867805e-03 7.167997054509e-01 -3.407074380711e-04 1.480400464273e-03 1.799999922989e+02
                   1.480400464288e-03 -1.799999605858e+02 7.167997054509e-01 -3.407074380711e-04 2.832002945050e-01 -4.780242606114e-04 1.480400464361e-03 3.697088869641e-04
                   7.178552466367e-01 -3.441614672115e-04 1.480400464273e-03 1.799999922989e+02 1.480400464361e-03 3.697088869641e-04 2.821447533221e-01 -5.184923321048e-04
1.577683203700e+00 2.821447533349e-01 -1.261000091812e-03 1.480400463836e-03 -3.619124142987e-04 1.480400463938e-03 -1.799999577958e+02 7.178552466421e-01 -3.685235234524e-04
                   1.480400463836e-03 -3.619124142987e-04 2.832002945192e-01 -1.319021691339e-03 7.167997054558e-01 -3.648249949702e-04 1.480400463921e-03 1.799999917538e+02
                   1.480400463938e-03 -1.799999577958e+02 7.167997054558e-01 -3.648249949702e-04 2.832002944938e-01 -5.118620229488e-04 1.480400464022e-03 3.958793608702e-04
                   7.178552466421e-01 -3.685235234524e-04 1.480400463921e-03 1.799999917538e+02 1.480400464022e-03 3.958793608702e-04 2.821447533109e-01 -5.551946958837e-04
1.689362199202e+00 2.821447533255e-01 -1.350262133329e-03 1.480400463420e-03 -3.875310015973e-04 1.480400463536e-03 -1.799999548083e+02 7.178552466482e-01 -3.946100893791e-04
                   1.480400463420e-03 -3.875310015973e-04 2.832002945101e-01 -1.412390890700e-03 7.167997054615e-01 -3.906497542527e-04 1.480400463517e-03 1.799999911700e+02
                   1.480400463536e-03 -1.799999548083e+02 7.167997054615e-01 -3.906497542527e-04 2.832002944809e-01 -5.480950489951e-04 1.480400463633e-03 4.239023563916e-04
                   7.178552466482e-01 -3.946100893791e-04 1.480400463517e-03 1.799999911700e+02 1.480400463633e-03 4.239023563916e-04 2.821447532980e-01 -5.944950990631e-04
1.808946582812e+00 2.821447533147e-01 -1.445842740651e-03 1.480400462943e-03 -4.149630442765e-04 1.480400463076e-03 -1.799999516094e+02 7.178552466552e-01 -4.225432373508e-04
                   1.480400462943e-03 -4.149630442765e-04 2.832002944995e-01 -1.512369388040e-03 7.167997054679e-01 -4.183025631496e-04 1.480400463054e-03 1.799999905450e+02
                   1.480400463076e-03 -1.799999516094e+02 7.167997054679e-01 -4.183025631496e-04 2.832002944661e-01 -5.868928915735e-04 1.480400463187e-03 4.539090074278e-04
                   7.178552466552e-01 -4.225432373508e-04 1.480400463054e-03 1.799999905450e+02 1.480400463187e-03 4.539090074278e-04 2.821447532832e-01 -6.365774483020e-04
1.936995950906e+00 2.821447533024e-01 -1.548189184237e-03 1.480400462395e-03 -4.443369108673e-04 1.480400462548e-03 -1.799999481840e+02 7.178552466633e-01 -4.524536808243e-04
                   1.480400462395e-03 -4.443369108673e-04 2.832002944875e-01 -1.619425033783e-03 7.167997054753e-01 -4.479128232695e-04 1.480400462523e-03 1.799999898757e+02
                   1.480400462548e-03 -1.799999481840e+02 7.167997054753e-01 -4.479128232695e-04 2.832002944491e-01 -6.284371055956e-04 1.480400462675e-03 4.860397304162e-04
                   7.178552466633e-01 -4.524536808243e-04 1.480400462523e-03 1.799999898757e+02 1.480400462675e-03 4.860397304162e-04 2.821447532663e-01 -6.816386683858e-04
2.074109511842e+00 2.821447532883e-01 -1.657780395340e-03 1.480400461768e-03 -4.757900566857e-04 1.480400461943e-03 -1.799999445161e+02 7.178552466726e-01 -4.844813860327e-04
                   1.480400461768e-03 -4.757900566857e-04 2.832002944737e-01 -1.734058795948e-03 7.167997054839e-01 -4.796190961348e-04 1.480400461914e-03 1.799999891590e+02
                   1.480400461943e-03 -1.799999445161e+02 7.167997054839e-01 -4.796190961348e-04 2.832002944297e-01 -6.729220976536e-04 1.480400462089e-03 5.204448814126e-04
                   7.178552466726e-01 -4.844813860327e-04 1.480400461914e-03 1.799999891590e+02 1.480400462089e-03 5.204448814126e-04 2.821447532469e-01 -7.298896237747e-04
2.220928889966e+00 2.821447532721e-01 -1.775129207184e-03 1.480400461048e-03 -5.094696670564e-04 1.480400461249e-03 -1.799999405885e+02 7.178552466832e-01 -5.187762269588e-04
                   1.480400461048e-03 -5.094696670564e-04 2.832002944579e-01 -1.856807104431e-03 7.167997054936e-01 -5.135697515793e-04 1.480400461216e-03 1.799999883917e+02
                   1.480400461249e-03 -1.799999405885e+02 7.167997054936e-01 -5.135697515793e-04 2.832002944074e-01 -7.205560357324e-04 1.480400461416e-03 5.572854596783e-04
                   7.178552466832e-01 -5.187762269588e-04 1.480400461216e-03 1.799999883917e+02 1.480400461416e-03 5.572854596783e-04 2.821447532246e-01 -7.815561053263e-04
2.324537911840e+00 2.821447532600e-01 -1.857941134125e-03 1.480400460511e-03 -5.332370438991e-04 1.480400460731e-03 -1.799999378169e+02 7.178552466911e-01 -5.429777660787e-04
                   1.480400460511e-03 -5.332370438991e-04 2.832002944460e-01 -1.943429404170e-03 7.167997055009e-01 -5.375284023194e-04 1.480400460695e-03 1.799999878501e+02
                   1.480400460731e-03 -1.799999378169e+02 7.167997055009e-01 -5.375284023194e-04 2.832002943908e-01 -7.541708473239e-04 1.480400460914e-03 5.832835011351e-04
                   7.178552466911e-01 -5.429777660787e-04 1.480400460695e-03 1.799999878501e+02 1.480400460914e-03 5.832835011351e-04 2.821447532080e-01 -8.180166440271e-04
2.432980420037e+00 2.821447532468e-01 -1.944616337739e-03 1.480400459922e-03 -5.581131976458e-04 1.480400460164e-03 -1.799999349160e+02 7.178552466998e-01 -5.683083362987e-04
                   1.480400459922e-03 -5.581131976458e-04 2.832002944331e-01 -2.034092739085e-03 7.167997055089e-01 -5.626047531232e-04 1.480400460124e-03 1.799999872833e+02
                   1.480400460164e-03 -1.799999349160e+02 7.167997055089e-01 -5.626047531232e-04 2.832002943726e-01 -7.893538305860e-04 1.480400460364e-03 6.104943827031e-04
                   7.178552466998e-01 -5.683083362987e-04 1.480400460124e-03 1.799999872833e+02 1.480400460364e-03 6.104943827031e-04 2.821447531897e-01 -8.561781110177e-04
2.546481902547e+00 2.821447532322e-01 -2.035335044556e-03 1.480400459278e-03 -5.841498540878e-04 1.480400459542e-03 -1.799999318798e+02 7.178552467093e-01 -5.948206082901e-04
                   1.480400459278e-03 -5.841498540878e-04 2.832002944189e-01 -2.128985628360e-03 7.167997055176e-01 -5.888509460524e-04 1.480400459499e-03 1.799999866901e+02
                   1.480400459542e-03 -1.799999318798e+02 7.167997055176e-01 -5.888509460524e-04 2.832002943526e-01 -8.261781426287e-04 1.480400459761e-03 6.389746848424e-04
                   7.178552467093e-01 -5.948206082901e-04 1.480400459499e-03 1.799999866901e+02 1.480400459761e-03 6.389746848424e-04 2.821447531698e-01 -8.961198566590e-04
2.665278366646e+00 2.821447532163e-01 -2.130285888899e-03 1.480400458571e-03 -6.114011520761e-04 1.480400458861e-03 -1.799999287019e+02 7.178552467197e-01 -6.225697098679e-04
                   1.480400458571e-03 -6.114011520761e-04 2.832002944033e-01 -2.228305385826e-03 7.167997055272e-01 -6.163215556598e-04 1.480400458813e-03 1.799999860691e+02
                   1.480400458861e-03 -1.799999287019e+02 7.167997055272e-01 -6.163215556598e-04 2.832002943307e-01 -8.647203534272e-04 1.480400459101e-03 6.687836275577e-04
                   7.178552467197e-01 -6.225697098679e-04 1.480400458813e-03 1.799999860691e+02 1.480400459101e-03 6.687836275577e-04 2.821447531479e-01 -9.379249331103e-04
2.789616829636e+00 2.821447531989e-01 -2.229666305111e-03 1.480400457797e-03 -6.399237561115e-04 1.480400458115e-03 -1.799999253757e+02 7.178552467311e-01 -6.516133406321e-04
                   1.480400457797e-03 -6.399237561115e-04 2.832002943863e-01 -2.332258530250e-03 7.167997055377e-01 -6.450737024633e-04 1.480400458062e-03 1.799999854192e+02
                   1.480400458115e-03 -1.799999253757e+02 7.167997055377e-01 -6.450737024633e-04 2.832002943067e-01 -9.050606050407e-04 1.480400458378e-03 6.999831935423e-04
                   7.178552467311e-01 -6.516133406321e-04 1.480400458062e-03 1.799999854192e+02 1.480400458378e-03 6.999831935423e-04 2.821447531239e-01 -9.816802670102e-04
2.919755832478e+00 2.821447531798e-01 -2.333682938089e-03 1.480400456950e-03 -6.697769741593e-04 1.480400457297e-03 -1.799999218944e+02 7.178552467436e-01 -6.820118919322e-04
                   1.480400456950e-03 -6.697769741593e-04 2.832002943676e-01 -2.441061214740e-03 7.167997055492e-01 -6.751671717254e-04 1.480400457240e-03 1.799999847390e+02
                   1.480400457297e-03 -1.799999218944e+02 7.167997055492e-01 -6.751671717254e-04 2.832002942805e-01 -9.472827782485e-04 1.480400457585e-03 7.326382570535e-04
                   7.178552467436e-01 -6.820118919322e-04 1.480400457240e-03 1.799999847390e+02 1.480400457585e-03 7.326382570535e-04 2.821447530977e-01 -1.027476840230e-03
3.055965977378e+00 2.821447531589e-01 -2.442552072957e-03 1.480400456021e-03 -7.010228809745e-04 1.480400456402e-03 -1.799999182507e+02 7.178552467573e-01 -7.138285724540e-04
                   1.480400456021e-03 -7.010228809745e-04 2.832002943472e-01 -2.554939676216e-03 7.167997055618e-01 -7.066645377629e-04 1.480400456339e-03 1.799999840271e+02
                   1.480400456402e-03 -1.799999182507e+02 7.167997055618e-01 -7.066645377629e-04 2.832002942517e-01 -9.914746669815e-04 1.480400456717e-03 7.668167188150e-04
                   7.178552467573e-01 -7.138285724540e-04 1.480400456339e-03 1.799999840271e+02 1.480400456717e-03 7.668167188150e-04 2.821447530690e-01 -1.075409879063e-03
3.198530490464e+00 2.821447531360e-01 -2.556500084803e-03 1.480400455004e-03 -7.337264471736e-04 1.480400455421e-03 -1.799999144370e+02 7.178552467723e-01 -7.471295396413e-04
                   1.480400455004e-03 -7.337264471736e-04 2.832002943248e-01 -2.674130705828e-03 7.167997055756e-01 -7.396312940568e-04 1.480400455352e-03 1.799999832819e+02
                   1.480400455421e-03 -1.799999144370e+02 7.167997055756e-01 -7.396312940568e-04 2.832002942202e-01 -1.037728160849e-03 1.480400455766e-03 8.025896471974e-04
                   7.178552467723e-01 -7.471295396413e-04 1.480400455352e-03 1.799999832819e+02 1.480400455766e-03 8.025896471974e-04 2.821447530375e-01 -1.125579052213e-03
3.347745810706e+00 2.821447531109e-01 -2.675763909395e-03 1.480400453889e-03 -7.679556743325e-04 1.480400454346e-03 -1.799999104454e+02 7.178552467887e-01 -7.819840372632e-04
                   1.480400453889e-03 -7.679556743325e-04 2.832002943003e-01 -2.798882141305e-03 7.167997055907e-01 -7.741359894451e-04 1.480400454271e-03 1.799999825020e+02
                   1.480400454346e-03 -1.799999104454e+02 7.167997055907e-01 -7.741359894451e-04 2.832002941857e-01 -1.086139436230e-03 1.480400454725e-03 8.400314259950e-04
                   7.178552467887e-01 -7.819840372632e-04 1.480400454271e-03 1.799999825020e+02 1.480400454725e-03 8.400314259950e-04 2.821447530030e-01 -1.178088678058e-03
3.503922206311e+00 2.821447530834e-01 -2.800591535832e-03 1.480400452669e-03 -8.037817363814e-04 1.480400453169e-03 -1.799999062676e+02 7.178552468067e-01 -8.184645393980e-04
                   1.480400452669e-03 -8.037817363814e-04 2.832002942734e-01 -2.929453382324e-03 7.167997056073e-01 -8.102503706447e-04 1.480400453087e-03 1.799999816857e+02
                   1.480400453169e-03 -1.799999062676e+02 7.167997056073e-01 -8.102503706447e-04 2.832002941479e-01 -1.136809156254e-03 1.480400453584e-03 8.792199091070e-04
                   7.178552468067e-01 -8.184645393980e-04 1.480400453087e-03 1.799999816857e+02 1.480400453584e-03 8.792199091070e-04 2.821447529652e-01 -1.233047941563e-03
3.667384419873e+00 2.821447530533e-01 -2.931242522217e-03 1.480400451331e-03 -8.412791276028e-04 1.480400451879e-03 -1.799999018948e+02 7.178552468265e-01 -8.566469011190e-04
                   1.480400451331e-03 -8.412791276028e-04 2.832002942440e-01 -3.066115929859e-03 7.167997056254e-01 -8.480495314480e-04 1.480400451789e-03 1.799999808313e+02
                   1.480400451879e-03 -1.799999018948e+02 7.167997056254e-01 -8.480495314480e-04 2.832002941065e-01 -1.189842680096e-03 1.480400452334e-03 9.202365823987e-04
                   7.178552468265e-01 -8.566469011190e-04 1.480400451789e-03 1.799999808313e+02 1.480400452334e-03 9.202365823987e-04 2.821447529237e-01 -1.290571121281e-03
3.838472343623e+00 2.821447530203e-01 -3.067988535345e-03 1.480400449866e-03 -8.805258175215e-04 1.480400450467e-03 -1.799998973181e+02 7.178552468481e-01 -8.966105162378e-04
                   1.480400449866e-03 -8.805258175215e-04 2.832002942117e-01 -3.209153950738e-03 7.167997056453e-01 -8.876120688642e-04 1.480400450368e-03 1.799999799371e+02
                   1.480400450467e-03 -1.799998973181e+02 7.167997056453e-01 -8.876120688642e-04 2.832002940611e-01 -1.245350282077e-03 1.480400450964e-03 9.631667331593e-04
                   7.178552468481e-01 -8.966105162378e-04 1.480400450368e-03 1.799999799371e+02 1.480400450964e-03 9.631667331593e-04 2.821447528784e-01 -1.350777827022e-03
4.017541726173e+00 2.821447529841e-01 -3.211113915589e-03 1.480400448261e-03 -9.216034130460e-04 1.480400448919e-03 -1.799998925279e+02 7.178552468717e-01 -9.384384823825e-04
                   1.480400448261e-03 -9.216034130460e-04 2.832002941764e-01 -3.358864868518e-03 7.167997056671e-01 -9.290202465430e-04 1.480400448811e-03 1.799999790011e+02
                   1.480400448919e-03 -1.799998925279e+02 7.167997056671e-01 -9.290202465430e-04 2.832002940114e-01 -1.303447380937e-03 1.480400449464e-03 1.008099627424e-03
                   7.178552468717e-01 -9.384384823825e-04 1.480400448811e-03 1.799999790011e+02 1.480400449464e-03 1.008099627424e-03 2.821447528287e-01 -1.413793248531e-03
4.204964912240e+00 2.821447529446e-01 -3.360916268165e-03 1.480400446503e-03 -9.645973281354e-04 1.480400447224e-03 -1.799998875142e+02 7.178552468976e-01 -9.822177737825e-04
                   1.480400446503e-03 -9.645973281354e-04 2.832002941377e-01 -3.515559981925e-03 7.167997056909e-01 -9.723601658372e-04 1.480400447105e-03 1.799999780215e+02
                   1.480400447224e-03 -1.799998875142e+02 7.167997056909e-01 -9.723601658372e-04 2.832002939569e-01 -1.364254779841e-03 1.480400447821e-03 1.055128695600e-03
                   7.178552468976e-01 -9.822177737825e-04 1.480400447105e-03 1.799999780215e+02 1.480400447821e-03 1.055128695600e-03 2.821447527743e-01 -1.479748415794e-03
4.401131616875e+00 2.821447529012e-01 -3.517707081923e-03 1.480400444577e-03 -1.009596961415e-03 1.480400445366e-03 -1.799998822666e+02 7.178552469261e-01 -1.028039422121e-03
                   1.480400444577e-03 -1.009596961415e-03 2.832002940953e-01 -3.679565112144e-03 7.167997057170e-01 -1.017721944831e-03 1.480400445236e-03 1.799999769962e+02
                   1.480400445366e-03 -1.799998822666e+02 7.167997057170e-01 -1.017721944831e-03 2.832002938973e-01 -1.427898917588e-03 1.480400446020e-03 1.104351726742e-03
                   7.178552469261e-01 -1.028039422121e-03 1.480400445236e-03 1.799999769962e+02 1.480400446020e-03 1.104351726742e-03 2.821447527146e-01 -1.548780471526e-03
4.502620522961e+00 2.821447528780e-01 -3.598824457096e-03 1.480400443546e-03 -1.032877994574e-03 1.480400444372e-03 -1.799998795517e+02 7.178552469413e-01 -1.051745733408e-03
                   1.480400443546e-03 -1.032877994574e-03 2.832002940726e-01 -3.764414889750e-03 7.167997057310e-01 -1.041190337880e-03 1.480400444236e-03 1.799999764657e+02
                   1.480400444372e-03 -1.799998795517e+02 7.167997057310e-01 -1.041190337880e-03 2.832002938654e-01 -1.460825881086e-03 1.480400445057e-03 1.129817779166e-03
                   7.178552469413e-01 -1.051745733408e-03 1.480400444236e-03 1.799999764657e+02 1.480400445057e-03 1.129817779166e-03 2.821447526827e-01 -1.584494931007e-03
4.606449735804e+00 2.821447528537e-01 -3.681812377044e-03 1.480400442467e-03 -1.056695882067e-03 1.480400443332e-03 -1.799998767741e+02 7.178552469572e-01 -1.075998705822e-03
                   1.480400442467e-03 -1.056695882067e-03 2.832002940489e-01 -3.851221280319e-03 7.167997057456e-01 -1.065199905726e-03 1.480400443189e-03 1.799999759230e+02
                   1.480400443332e-03 -1.799998767741e+02 7.167997057456e-01 -1.065199905726e-03 2.832002938320e-01 -1.494512131481e-03 1.480400444048e-03 1.155871071875e-03
                   7.178552469572e-01 -1.075998705822e-03 1.480400443189e-03 1.799999759230e+02 1.480400444048e-03 1.155871071875e-03 2.821447526493e-01 -1.621032956300e-03
4.712673222245e+00 2.821447528282e-01 -3.766713976018e-03 1.480400441337e-03 -1.081063003610e-03 1.480400442243e-03 -1.799998739326e+02 7.178552469738e-01 -1.100810945227e-03
                   1.480400441337e-03 -1.081063003610e-03 2.832002940240e-01 -3.940029402817e-03 7.167997057610e-01 -1.089763127716e-03 1.480400442094e-03 1.799999753678e+02
                   1.480400442243e-03 -1.799998739326e+02 7.167997057610e-01 -1.089763127716e-03 2.832002937970e-01 -1.528975177726e-03 1.480400442993e-03 1.182525146474e-03
                   7.178552469738e-01 -1.100810945227e-03 1.480400442094e-03 1.799999753678e+02 1.480400442993e-03 1.182525146474e-03 2.821447526144e-01 -1.658413538600e-03
4.821346193586e+00 2.821447528016e-01 -3.853573382944e-03 1.480400440155e-03 -1.105992024388e-03 1.480400441103e-03 -1.799998710255e+02 7.178552469912e-01 -1.126195348162e-03
                   1.480400440155e-03 -1.105992024388e-03 2.832002939980e-01 -4.030885416639e-03 7.167997057770e-01 -1.114892770966e-03 1.480400440947e-03 1.799999747998e+02
                   1.480400441103e-03 -1.799998710255e+02 7.167997057770e-01 -1.114892770966e-03 2.832002937604e-01 -1.564232932525e-03 1.480400441888e-03 1.209793856826e-03
                   7.178552469912e-01 -1.126195348162e-03 1.480400440947e-03 1.799999747998e+02 1.480400441888e-03 1.209793856826e-03 2.821447525778e-01 -1.696656107046e-03
4.932525134287e+00 2.821447527738e-01 -3.942435744337e-03 1.480400438918e-03 -1.131495901656e-03 1.480400439910e-03 -1.799998680514e+02 7.178552470095e-01 -1.152165108568e-03
                   1.480400438918e-03 -1.131495901656e-03 2.832002939708e-01 -4.123836545611e-03 7.167997057938e-01 -1.140601896996e-03 1.480400439746e-03 1.799999742187e+02
                   1.480400439910e-03 -1.799998680514e+02 7.167997057938e-01 -1.140601896996e-03 2.832002937221e-01 -1.600303721641e-03 1.480400440731e-03 1.237691376267e-03
                   7.178552470095e-01 -1.152165108568e-03 1.480400439746e-03 1.799999742187e+02 1.480400440731e-03 1.237691376267e-03 2.821447525395e-01 -1.735780538806e-03
5.046267831325e+00 2.821447527446e-01 -4.033347247812e-03 1.480400437623e-03 -1.157587891435e-03 1.480400438661e-03 -1.799998650087e+02 7.178552470286e-01 -1.178733724624e-03
                   1.480400437623e-03 -1.157587891435e-03 2.832002939423e-01 -4.218931102535e-03 7.167997058113e-01 -1.166903868518e-03 1.480400438490e-03 1.799999736242e+02
                   1.480400438661e-03 -1.799998650087e+02 7.167997058113e-01 -1.166903868518e-03 2.832002936819e-01 -1.637206293428e-03 1.480400439521e-03 1.266232204969e-03
                   7.178552470286e-01 -1.178733724624e-03 1.480400438490e-03 1.799999736242e+02 1.480400439521e-03 1.266232204969e-03 2.821447524994e-01 -1.775807169419e-03
5.162633404228e+00 2.821447527141e-01 -4.126355146005e-03 1.480400436268e-03 -1.184281555450e-03 1.480400437354e-03 -1.799998618958e+02 7.178552470486e-01 -1.205915005787e-03
                   1.480400436268e-03 -1.184281555450e-03 2.832002939124e-01 -4.316218514250e-03 7.167997058297e-01 -1.193812356396e-03 1.480400437175e-03 1.799999730160e+02
                   1.480400437354e-03 -1.799998618958e+02 7.167997058297e-01 -1.193812356396e-03 2.832002936400e-01 -1.674959828583e-03 1.480400438254e-03 1.295431177464e-03
                   7.178552470486e-01 -1.205915005787e-03 1.480400437175e-03 1.799999730160e+02 1.480400438254e-03 1.295431177464e-03 2.821447524574e-01 -1.816756803346e-03
5.281682335806e+00 2.821447526821e-01 -4.221507781225e-03 1.480400434849e-03 -1.211590768144e-03 1.480400435987e-03 -1.799998587112e+02 7.178552470695e-01 -1.233723079945e-03
                   1.480400434849e-03 -1.211590768144e-03 2.832002938812e-01 -4.415749347430e-03 7.167997058490e-01 -1.221341346727e-03 1.480400435799e-03 1.799999723937e+02
                   1.480400435987e-03 -1.799998587112e+02 7.167997058490e-01 -1.221341346727e-03 2.832002935960e-01 -1.713583950067e-03 1.480400436928e-03 1.325303470370e-03
                   7.178552470695e-01 -1.233723079945e-03 1.480400435799e-03 1.799999723937e+02 1.480400436928e-03 1.325303470370e-03 2.821447524135e-01 -1.858650724785e-03
5.403476503583e+00 2.821447526487e-01 -4.318854610533e-03 1.480400433365e-03 -1.239529723904e-03 1.480400434555e-03 -1.799998554531e+02 7.178552470914e-01 -1.262172400772e-03
                   1.480400433365e-03 -1.239529723904e-03 2.832002938485e-01 -4.517575334746e-03 7.167997058691e-01 -1.249505148134e-03 1.480400434358e-03 1.799999717571e+02
                   1.480400434555e-03 -1.799998554531e+02 7.167997058691e-01 -1.249505148134e-03 2.832002935501e-01 -1.753098733389e-03 1.480400435540e-03 1.355864610278e-03
                   7.178552470914e-01 -1.262172400772e-03 1.480400434358e-03 1.799999717571e+02 1.480400435540e-03 1.355864610278e-03 2.821447523675e-01 -1.901510708762e-03
5.528079211966e+00 2.821447526137e-01 -4.418446231452e-03 1.480400431811e-03 -1.268112944428e-03 1.480400433056e-03 -1.799998521199e+02 7.178552471143e-01 -1.291277755245e-03
                   1.480400431811e-03 -1.268112944428e-03 2.832002938143e-01 -4.621749401847e-03 7.167997058902e-01 -1.278318399185e-03 1.480400432851e-03 1.799999711058e+02
                   1.480400433056e-03 -1.799998521199e+02 7.167997058902e-01 -1.278318399185e-03 2.832002935019e-01 -1.793524716960e-03 1.480400434088e-03 1.387130481808e-03
                   7.178552471143e-01 -1.291277755245e-03 1.480400432851e-03 1.799999711058e+02 1.480400434088e-03 1.387130481808e-03 2.821447523194e-01 -1.945359032426e-03
5.655555225142e+00 2.821447525771e-01 -4.520334408261e-03 1.480400430184e-03 -1.297355286301e-03 1.480400431488e-03 -1.799998487098e+02 7.178552471383e-01 -1.321054271323e-03
                   1.480400430184e-03 -1.297355286301e-03 2.832002937785e-01 -4.728325694814e-03 7.167997059122e-01 -1.307796076012e-03 1.480400431273e-03 1.799999704395e+02
                   1.480400431488e-03 -1.799998487098e+02 7.167997059122e-01 -1.307796076012e-03 2.832002934516e-01 -1.834882912831e-03 1.480400432568e-03 1.419117335883e-03
                   7.178552471383e-01 -1.321054271323e-03 1.480400431273e-03 1.799999704395e+02 1.480400432568e-03 1.419117335883e-03 2.821447522691e-01 -1.990218486612e-03
5.785970800744e+00 2.821447525388e-01 -4.624572098943e-03 1.480400428482e-03 -1.327271948668e-03 1.480400429846e-03 -1.799998452211e+02 7.178552471634e-01 -1.351517425808e-03
                   1.480400428482e-03 -1.327271948668e-03 2.832002937410e-01 -4.837359608328e-03 7.167997059353e-01 -1.337953500099e-03 1.480400429621e-03 1.799999697579e+02
                   1.480400429846e-03 -1.799998452211e+02 7.167997059353e-01 -1.337953500099e-03 2.832002933988e-01 -1.877194817547e-03 1.480400430976e-03 1.451841798167e-03
                   7.178552471634e-01 -1.351517425808e-03 1.480400429621e-03 1.799999697579e+02 1.480400430976e-03 1.451841798167e-03 2.821447522164e-01 -2.036112387721e-03
5.919393724285e+00 2.821447524986e-01 -4.731213482629e-03 1.480400426700e-03 -1.357878481186e-03 1.480400428128e-03 -1.799998416519e+02 7.178552471897e-01 -1.382683052399e-03
                   1.480400426700e-03 -1.357878481186e-03 2.832002937018e-01 -4.948907814463e-03 7.167997059595e-01 -1.368806346227e-03 1.480400427893e-03 1.799999690605e+02
                   1.480400428128e-03 -1.799998416519e+02 7.167997059595e-01 -1.368806346227e-03 2.832002933437e-01 -1.920482423391e-03 1.480400429311e-03 1.485320877699e-03
                   7.178552471897e-01 -1.382683052399e-03 1.480400427893e-03 1.799999690605e+02 1.480400429311e-03 1.485320877699e-03 2.821447521612e-01 -2.083064589830e-03
6.055893344399e+00 2.821447524566e-01 -4.840313987848e-03 1.480400424835e-03 -1.389190792075e-03 1.480400426330e-03 -1.799998380005e+02 7.178552472172e-01 -1.414567349911e-03
                   1.480400424835e-03 -1.389190792075e-03 2.832002936608e-01 -5.063028292122e-03 7.167997059848e-01 -1.400370650644e-03 1.480400426083e-03 1.799999683471e+02
                   1.480400426330e-03 -1.799998380005e+02 7.167997059848e-01 -1.400370650644e-03 2.832002932859e-01 -1.964768229765e-03 1.480400427568e-03 1.519571975755e-03
                   7.178552472172e-01 -1.414567349911e-03 1.480400426083e-03 1.799999683471e+02 1.480400427568e-03 1.519571975755e-03 2.821447521035e-01 -2.131099497068e-03
6.195540608876e+00 2.821447524127e-01 -4.951930321283e-03 1.480400422883e-03 -1.421225156384e-03 1.480400424448e-03 -1.799998342648e+02 7.178552472459e-01 -1.447186890696e-03
                   1.480400422883e-03 -1.421225156384e-03 2.832002936178e-01 -5.179780357203e-03 7.167997060113e-01 -1.432662819382e-03 1.480400424190e-03 1.799999676172e+02
                   1.480400424448e-03 -1.799998342648e+02 7.167997060113e-01 -1.432662819382e-03 2.832002932254e-01 -2.010075254894e-03 1.480400425743e-03 1.554612894870e-03
                   7.178552472459e-01 -1.447186890696e-03 1.480400424190e-03 1.799999676172e+02 1.480400425743e-03 1.554612894870e-03 2.821447520430e-01 -2.180242076334e-03
6.338408101545e+00 2.821447523667e-01 -5.066120497240e-03 1.480400420840e-03 -1.453998224482e-03 1.480400422478e-03 -1.799998304430e+02 7.178552472761e-01 -1.480558629273e-03